30
Lattice="5.13866533 0.0 0.0 -2.56943161 4.45032869 0.0 -0.00029906 0.00021722 13.81846289" Properties=species:S:1:pos:R:3:Qs:I:1 REF_dipole="1.0199973305641519 -32.182088365015304 -47.062465917732105" energy=-667054.722610909 free_energy=-667054.722610909 polarization="-0.078631954 -0.052177222 -0.284278997" pbc="T T T"
Nb      -0.01135292      -0.09832854       0.09216997        5
Nb       0.10634451       0.10870411       6.88591855        5
Nb       2.54068037       1.49529606       4.66337952        5
Nb       2.50922607       1.52564967      11.42895788        5
Nb      -0.04627258       3.04561598       9.20085720        5
Nb       0.05628699       3.01336792       2.29733822        5
Li       0.14003670      -0.14066959       3.66654723        1
Li      -0.33474745      -0.15102453       9.87407646        1
Li       2.69041635       1.40375370       8.13705224        1
Li       2.53508696       1.42689991       0.81118634        1
Li       0.04199968       2.93305469      12.79883894        1
Li       0.10297471       3.09162264       5.33077254        1
O       -0.57314655       1.40814587       1.44712506       -2
O        1.75300008       3.08056813       1.48622597       -2
O       -0.90586673       4.31015902       1.30584004       -2
O        1.03919293       4.20735047       8.45725738       -2
O        0.43666222       1.50138160       8.24050639       -2
O       -1.69401798       3.00349876       8.16033604       -2
O        1.91650525       2.71234546       5.90408314       -2
O        1.77063226       0.10979369       6.26699287       -2
O        4.36117171       1.40430933       5.80623827       -2
O        0.81597010       1.32788027      12.82545656       -2
O        3.19508737       3.09745947      12.83233586       -2
O        3.33853144       0.03441478      13.06305713       -2
O       -0.75087601       4.56084085      10.33308478       -2
O       -0.96327187       1.50256167      10.45558930       -2
O        1.35199487       2.72747463      10.60666940       -2
O       -1.53730744       2.86270058       3.94740275       -2
O        0.60307152       4.31408023       3.87374657       -2
O        1.13894813       1.38721691       3.45212462       -2
30
Lattice="5.13866533 0.0 0.0 -2.56943161 4.45032869 0.0 -0.00029906 0.00021722 13.81846289" Properties=species:S:1:pos:R:3:Qs:I:1 REF_dipole="2.163366789461916 -38.62740712804165 -50.052787380727914" energy=-667052.250682321 free_energy=-667052.250682321 polarization="-0.020688281 0.072319538 0.264708122" pbc="T T T"
Nb       0.09170641      -0.02423404      -0.14829239        5
Nb      -0.14232010      -0.06549679       6.79082540        5
Nb       2.58748609       1.42195210       4.53665216        5
Nb       2.78761033       1.64121668      11.58104341        5
Nb       0.00477910       2.98824787       9.30473469        5
Nb      -0.07011122       2.72719417       2.37290473        5
Li      -0.33927192      -0.00440448       2.45372067        1
Li       0.42263585       0.28733212      10.04219606        1
Li       2.52564115       1.53193629       7.57469561        1
Li       2.25644341       1.61578443       1.68023292        1
Li       0.12837310       3.10077212      12.23092595        1
Li      -0.16172661       2.94988253       6.54856807        1
O       -0.71197620       1.20617480       1.30120444       -2
O        1.45871934       3.20776646       1.48932165       -2
O       -1.00744759       3.94105791       1.33869136       -2
O        0.90558097       4.29307189       8.17282462       -2
O        0.97246368       1.65245641       8.57219467       -2
O       -1.55516717       3.26868534       8.43947702       -2
O        1.61223894       2.90154748       6.04595555       -2
O        1.50821328       0.18634552       6.12231582       -2
O        3.75427423       1.45282430       6.15972865       -2
O        0.92913465       1.34080278      12.87943263       -2
O        3.65494237       2.99583627      13.11629236       -2
O        3.76073548       0.35287230      12.74925504       -2
O       -0.51769725       4.80533131      10.55131746       -2
O       -0.84023288       1.66068511      10.47797350       -2
O        1.47350455       3.06406839      10.89459472       -2
O       -1.98949467       3.04307063       3.67630526       -2
O        0.59635627       4.53225470       3.61381472       -2
O        0.83589363       1.58026605       3.66094324       -2
30
Lattice="5.13866533 0.0 0.0 -2.56943161 4.45032869 0.0 -0.00029906 0.00021722 13.81846289" Properties=species:S:1:pos:R:3:Qs:I:1 REF_dipole="1.7989893342693244 -34.603745838454216 -44.07114961233108" energy=-667055.057793648 free_energy=-667055.057793648 polarization="0.091123198 0.050676474 -0.132619164" pbc="T T T"
Nb       0.03226928       0.08474456       0.01359806        5
Nb      -0.08949921      -0.00332515       6.97736037        5
Nb       2.35902970       1.46044974       4.74700011        5
Nb       2.67051929       1.46107947      11.61226487        5
Nb       0.13981444       2.96705433       9.30431135        5
Nb      -0.00782473       3.00680083       2.27724007        5
Li      -0.14751132      -0.38020960       2.80937010        1
Li       0.12543458      -0.12612727       9.89328559        1
Li       2.73132704       1.42029578       7.55236433        1
Li       2.74056648       1.18082721       0.55767870        1
Li       0.22583061       2.89543548      12.01877881        1
Li      -0.08859644       3.03237067       5.15896457        1
O       -0.61221042       1.52421560       1.22955914       -2
O        1.66348975       3.20025214       1.32455704       -2
O       -1.11305548       4.19288806       1.25808179       -2
O        1.23192456       4.37906848       8.53097176       -2
O        0.63953713       1.43226047       8.22119142       -2
O       -1.45255971       3.11928803       8.20796199       -2
O        1.73775977       3.04274254       5.81687473       -2
O        1.65275804       0.13691032       6.00764312       -2
O        4.24764203       1.30885635       6.14263623       -2
O        0.98330123       1.21931427      12.91827424       -2
O        2.99241779       2.89274726      12.90356311       -2
O        3.45837950       0.04581415      12.66633297       -2
O       -0.47478891       4.47658526      10.44331239       -2
O       -0.78249435       1.70780305      10.71250484       -2
O        1.65755238       2.92211130      10.46146317       -2
O       -1.75670961       2.66302614       3.84414440       -2
O        0.50414079       4.47486014       3.35287214       -2
O        0.83462360       1.70721566       3.45323589       -2
30
Lattice="5.13866533 0.0 0.0 -2.56943161 4.45032869 0.0 -0.00029906 0.00021722 13.81846289" Properties=species:S:1:pos:R:3:Qs:I:1 REF_dipole="-2.2492973518850263 -36.61787402797899 -49.459357540641214" energy=-667055.940155534 free_energy=-667055.940155534 polarization="0.146390268 -0.051428877 0.294795034" pbc="T T T"
Nb       0.05966844       0.04744127      -0.01124676        5
Nb      -0.23767148       0.03706389       6.96831144        5
Nb       2.62683042       1.38593630       4.69381780        5
Nb       2.52280476       1.45131615      11.53410539        5
Nb      -0.08368938       2.98423671       9.12428526        5
Nb       0.10425056       2.97810355       2.21851198        5
Li       0.10753992       0.22435103       3.26403916        1
Li      -0.11451183       0.07778006       9.98996627        1
Li       2.27797563       1.51198102       7.54971845        1
Li       2.66597366       1.45130027       0.95308521        1
Li       0.08935316       2.94803041      12.30056567        1
Li      -0.13209057       2.94238408       5.26769461        1
O       -0.42092343       1.40288585       1.37087063       -2
O        1.84463770       3.47736638       1.72055093       -2
O       -0.81591719       4.26350676       1.11907223       -2
O        0.72233749       4.42106928       8.16467529       -2
O        0.64107703       1.29874906       8.60420989       -2
O       -1.85286111       3.29947287       8.31448536       -2
O        1.79129134       2.97132479       6.05738578       -2
O        1.57847743       0.30234540       6.02240716       -2
O        4.09208509       1.38876211       5.98589393       -2
O        1.24182018       1.37796689      13.10105205       -2
O        3.27796711       2.93919315      12.95251201       -2
O        3.69568902       0.11800811      12.77465554       -2
O       -0.34601469       4.36573851      10.61555958       -2
O       -0.90313088       1.58522444      10.74579009       -2
O        1.54767403       2.63875278      10.49093834       -2
O       -1.37505113       2.59114271       3.71509924       -2
O        0.59973771       4.31750929       3.93147451       -2
O        1.04437887       1.73367453       3.57571396       -2
30
Lattice="5.13866533 0.0 0.0 -2.56943161 4.45032869 0.0 -0.00029906 0.00021722 13.81846289" Properties=species:S:1:pos:R:3:Qs:I:1 REF_dipole="-5.767904625418369 -32.37547916801519 -23.34928183633313" energy=-667052.585163177 free_energy=-667052.585163177 polarization="0.098297356 -0.061993155 0.217383686" pbc="T T T"
Nb      -0.04256760      -0.19263850       0.07786949        5
Nb       0.09867356       0.36608110       6.99223025        5
Nb       2.53620353       1.42929708       4.71667296        5
Nb       2.47188204       1.48735311      11.71264979        5
Nb      -0.14463366       2.95656603       9.36389670        5
Nb       0.03270686       2.98483997       2.39861216        5
Li      -0.15647188      -0.22656617       3.24061249        1
Li      -0.45807803       0.30552523      10.63106447        1
Li       2.56739852       1.70475499       9.00606707        1
Li       2.78900207       1.38063924       1.43961075        1
Li       0.07405941       3.13308368      12.65077516        1
Li      -0.13576465       2.85768398       6.26672828        1
O       -0.66628703       1.04268021       1.32534551       -2
O        1.53494202       2.93421359       1.07801866       -2
O       -1.07081656       4.15684580       1.20477777       -2
O        1.19035240       4.45813285       7.94554301       -2
O        0.73351371       1.81890910       7.98459629       -2
O       -1.40628846       3.56147909       8.01285435       -2
O        2.11445458       2.65024651       5.92826654       -2
O        1.59272817       0.14208302       5.61748076       -2
O        4.05309531       1.02473581       5.70458333       -2
O        0.93807775       1.30467056      12.68189078       -2
O        3.38405656       3.01864381      12.43756966       -2
O        3.69885350       0.29817284      12.60119125       -2
O        0.02397654       4.51889827      10.31091225       -2
O       -1.19816835       1.84462711      10.22973647       -2
O        1.66226735       2.74602229      10.15073031       -2
O       -1.53479914       2.44751872       3.14624961       -2
O        0.60519353       4.29845362       3.51760501       -2
O        1.03285339       1.37071716       3.42543292       -2
30
Lattice="5.13866533 0.0 0.0 -2.56943161 4.45032869 0.0 -0.00029906 0.00021722 13.81846289" Properties=species:S:1:pos:R:3:Qs:I:1 REF_dipole="0.16294738804871245 -34.84264438375618 -32.72234519334644" energy=-667054.894713032 free_energy=-667054.894713032 polarization="0.008190981 0.038553297 -0.257830928" pbc="T T T"
Nb      -0.08658398      -0.04077559       0.05293783        5
Nb       0.19700104       0.00263378       6.71367136        5
Nb       2.58864499       1.41713130       4.69805651        5
Nb       2.51088240       1.50711259      11.56998361        5
Nb      -0.04285584       3.13633283       9.38696883        5
Nb      -0.01498201       2.93121315       2.50268015        5
Li       0.08767249       0.07322119       3.11971137        1
Li      -0.07009481      -0.04757896       9.95101883        1
Li       2.60318149       1.56280320       8.52012363        1
Li       2.69683527       1.29453152       1.04620453        1
Li      -0.20987645       2.98572899      13.41638876        1
Li       0.13290815       2.75067905       6.57830783        1
O       -0.45317573       1.65903408       0.97447455       -2
O        1.68622320       2.99058155       1.22372232       -2
O       -1.25792833       4.18846414       1.43001147       -2
O        1.07093827       4.35544072       8.38719431       -2
O        0.30229778       1.56145909       7.87002942       -2
O       -1.53511665       3.28138030       8.01253684       -2
O        2.05989641       2.92730253       5.86910452       -2
O        1.81297702      -0.00323972       5.71786567       -2
O        4.01952431       1.08405657       5.86524153       -2
O        0.97346383       1.18121880      12.61791325       -2
O        3.01795059       2.90495538      12.70480415       -2
O        3.48203372       0.31887425      12.93928258       -2
O       -0.77593785       4.63936017      10.38303911       -2
O       -0.91686832       1.68569403      10.35642149       -2
O        1.67210476       2.63709116      10.26175169       -2
O       -1.45515268       2.68632052       3.68991041       -2
O        0.80146536       4.47556924       3.43148142       -2
O        0.77970030       1.74799935       3.79082979       -2
30
Lattice="5.13866533 0.0 0.0 -2.56943161 4.45032869 0.0 -0.00029906 0.00021722 13.81846289" Properties=species:S:1:pos:R:3:Qs:I:1 REF_dipole="-4.835372606586323 -42.016497124394434 -43.34476528074432" energy=-667051.794441545 free_energy=-667051.794441545 polarization="0.145551564 -0.099518447 -0.095791455" pbc="T T T"
Nb       0.07388372      -0.09599433       0.04780852        5
Nb      -0.04439860       0.00736234       6.72203236        5
Nb       2.32890894       1.52385576       4.61442005        5
Nb       2.57457946       1.44905656      11.56781398        5
Nb       0.11255176       2.92913878       9.23874629        5
Nb      -0.15752547       2.89078401       2.48355569        5
Li      -0.07192683      -0.05609384       2.87249036        1
Li       0.00908132      -0.17397177       9.99515221        1
Li       2.51295148       1.46550868       7.60644625        1
Li       2.77386760       1.11898756       1.00603468        1
Li      -0.32137885       2.24331981      13.00913397        1
Li       0.29891739       2.98856538       6.49967210        1
O       -0.76278779       1.71174013       1.01929057       -2
O        1.17593232       3.54825496       1.26787157       -2
O       -1.32601227       4.33905210       1.75202110       -2
O        1.03761069       4.02620253       7.83954881       -2
O        0.60024572       1.31768302       8.44095872       -2
O       -1.50031796       3.11675856       8.26474271       -2
O        1.79064574       3.37452608       5.40877326       -2
O        2.01107451       0.42365293       5.96451517       -2
O        4.43153111       1.48601430       6.29308131       -2
O        1.29981800       1.07556857      13.09221479       -2
O        3.15807672       3.00930384      12.83958559       -2
O        3.92110264       0.38054298      12.53906585       -2
O        0.00878429       4.38076185      10.49617720       -2
O       -0.85256271       2.04859318      10.80796841       -2
O        1.68619145       2.67622382      10.40605832       -2
O       -1.24142859       2.83532624       4.06922464       -2
O        0.62830799       4.78438119       3.59244125       -2
O        0.76878866       1.68363024       3.59587032       -2
30
Lattice="5.13866533 0.0 0.0 -2.56943161 4.45032869 0.0 -0.00029906 0.00021722 13.81846289" Properties=species:S:1:pos:R:3:Qs:I:1 REF_dipole="-0.43552081869285064 -36.7150865070108 -20.507035427226715" energy=-667052.721132423 free_energy=-667052.721132423 polarization="-0.022136214 -0.056390592 -0.339110843" pbc="T T T"
Nb       0.15943686       0.03523696       0.16182239        5
Nb       0.05556996       0.09163391       7.00704721        5
Nb       2.74208522       1.68596920       4.74136966        5
Nb       2.33253909       1.36460517      11.51129785        5
Nb      -0.23587545       2.89910268       9.22990903        5
Nb       0.09605202       2.80346977       2.50717816        5
Li      -0.13857617      -0.17152274       3.95773758        1
Li      -0.30727363       0.04924095      11.31063385        1
Li       2.26769901       1.81193454       8.63521968        1
Li       2.91635386       1.61429744       1.82360290        1
Li       0.17506823       2.67459395      13.51899622        1
Li      -0.09203821       2.93379025       6.58672175        1
O       -0.76212103       1.34883569       1.25960582       -2
O        1.52145859       3.04452587       0.94282976       -2
O       -1.10020177       3.97054896       1.15917328       -2
O        1.33729433       4.14510865       8.00131829       -2
O        0.57445891       1.67493056       7.81901673       -2
O       -1.48308795       2.96773167       7.78948865       -2
O        2.29280317       3.35431151       5.56440428       -2
O        1.73766981       0.33163589       5.88704363       -2
O        4.31093162       1.39704902       5.77295302       -2
O        0.76859816       1.25718219      12.61621988       -2
O        2.82819822       3.06063403      12.56594805       -2
O        3.40693818       0.23338673      12.35909267       -2
O       -0.73766775       4.41618497      10.10532690       -2
O       -1.05135871       1.81494556      10.28170167       -2
O        1.47292245       2.74464643      10.10045847       -2
O       -1.45748635       2.77614306       3.49957065       -2
O        0.76349160       4.44864999       3.32464583       -2
O        1.05687803       1.63557036       3.72690518       -2
30
Lattice="5.13866533 0.0 0.0 -2.56943161 4.45032869 0.0 -0.00029906 0.00021722 13.81846289" Properties=species:S:1:pos:R:3:Qs:I:1 REF_dipole="2.027388262342746 -39.66033792920725 -22.29929131972986" energy=-667050.168015983 free_energy=-667050.168015983 polarization="-0.027552072 0.019927887 0.270618239" pbc="T T T"
Nb      -0.04012788      -0.08599341       0.12294851        5
Nb      -0.03614757       0.06791937       7.05197436        5
Nb       2.47023630       1.66379667       5.03743902        5
Nb       2.57288609       1.15976596      11.66343630        5
Nb       0.20174987       2.97049927       9.03353137        5
Nb      -0.03794206       2.97615617       2.37678889        5
Li       0.17226200      -0.20236054       3.89150576        1
Li       0.38007307      -0.17878623      10.58195682        1
Li       2.73526941       1.71985771       8.44429254        1
Li       2.83504049       1.49467693       2.32137874        1
Li      -0.33171368       2.71207028      12.82281067        1
Li       0.16674215       2.92247115       6.19327849        1
O       -0.49688365       1.40876501       1.15483932       -2
O        1.62024010       3.35755536       1.28659386       -2
O       -0.90808927       3.57449685       0.81988072       -2
O        0.88395879       4.68226586       7.82240347       -2
O        0.57668146       1.73510330       7.73043247       -2
O       -1.48716261       3.19462170       7.89331322       -2
O        1.66166409       3.11748883       5.71733650       -2
O        1.15693486       0.28310187       5.65187727       -2
O        4.10690205       1.45052767       5.99224406       -2
O        0.68959200       0.93623621      12.52424888       -2
O        3.04307063       2.97074798      12.30114777       -2
O        3.47745104      -0.05680665      12.66786758       -2
O       -0.29147822       4.54315046      10.27609239       -2
O       -0.83097228       2.09091677      10.19867377       -2
O        1.70065387       2.91416835      10.02044688       -2
O       -1.47413427       2.83561729       3.65245524       -2
O        0.57983535       4.41214735       3.64858696       -2
O        1.08963939       2.10726835       3.36161415       -2
30
Lattice="5.13866533 0.0 0.0 -2.56943161 4.45032869 0.0 -0.00029906 0.00021722 13.81846289" Properties=species:S:1:pos:R:3:Qs:I:1 REF_dipole="-0.4254297329209236 -40.98334300735511 -39.938650579996605" energy=-667054.944480928 free_energy=-667054.944480928 polarization="0.108605312 -0.0471375 0.07689867" pbc="T T T"
Nb       0.03638654      -0.11597130       0.09910643        5
Nb      -0.02846603      -0.03609751       6.89449122        5
Nb       2.48761447       1.43163605       4.63948717        5
Nb       2.69338504       1.52767642      11.59480202        5
Nb      -0.00829454       2.93752095       9.30505220        5
Nb      -0.04759214       2.96632406       2.32086544        5
Li      -0.04866166      -0.02449858       3.01656944        1
Li       0.07992164      -0.01643032       9.88333706        1
Li       2.44553430       1.39548795       7.86563725        1
Li       2.66573023       1.58172658       1.00549492        1
Li       0.25083265       2.91387731      12.71634021        1
Li      -0.01880627       2.77213719       5.87524298        1
O       -0.60905123       1.49976761       1.29780713       -2
O        1.72794883       3.18260937       1.35794812       -2
O       -0.89233038       4.36683390       1.17591645       -2
O        1.08297176       4.10926748       8.10805333       -2
O        0.48592809       1.62655847       8.05280723       -2
O       -1.74713679       3.62980646       8.42561258       -2
O        1.94160942       2.99791065       5.82909872       -2
O        1.64335456       0.17073268       5.77919731       -2
O        3.99554200       1.28866294       6.16650212       -2
O        1.06078865       1.36419241      12.84043227       -2
O        3.40303285       3.07280510      12.86048809       -2
O        3.37536218       0.22197344      13.12163705       -2
O       -0.52541371       4.41798417      10.46617285       -2
O       -1.31842916       1.61532404      10.24487094       -2
O        1.38858219       2.66789986      10.56899198       -2
O       -1.32041887       3.00101692       3.64046409       -2
O        0.61249617       4.66752827       3.56789272       -2
O        1.03223425       1.82790511       3.41503459       -2
30
Lattice="5.13866533 0.0 0.0 -2.56943161 4.45032869 0.0 -0.00029906 0.00021722 13.81846289" Properties=species:S:1:pos:R:3:Qs:I:1 REF_dipole="-4.701206972303679 -35.32223439475969 -21.002136561673737" energy=-667053.336870723 free_energy=-667053.336870723 polarization="0.022108696 0.014238068 0.336384027" pbc="T T T"
Nb      -0.10012350      -0.10539993       0.09370511        5
Nb       0.06586245       0.09494815       7.18426866        5
Nb       2.54699874       1.39637168       4.74567187        5
Nb       2.45912357       1.57715449      11.61141818        5
Nb       0.10594445       3.11329245       9.38622798        5
Nb      -0.14253812       2.79352124       2.42032959        5
Li      -0.03308432       0.17297851       3.64361798        1
Li       0.22651590      -0.18466962      11.23464400        1
Li       2.86197561       1.89712678       7.74810699        1
Li       2.38731423       1.04547426       1.27941293        1
Li      -0.22472146       2.96025969      12.88816406        1
Li      -0.08630986       2.92498474       5.90921616        1
O       -0.75737960       1.38551825       0.98259743       -2
O        1.24657219       3.00767397       0.87214756       -2
O       -1.21736161       4.03739992       1.30378154       -2
O        1.16710035       4.59497808       8.12525159       -2
O        0.77753596       1.63846496       7.78721318       -2
O       -1.25326099       3.39928628       7.87722623       -2
O        1.84719891       2.92159271       5.60001791       -2
O        1.77398725      -0.04930730       5.46110889       -2
O        4.17399643       1.03499655       5.81211214       -2
O        0.98503693       1.26014558      12.71919777       -2
O        3.06324287       3.11828259      12.58065918       -2
O        3.53954470       0.36025644      12.59828078       -2
O       -0.65863513       4.37847051      10.41267303       -2
O       -0.54635960       1.88110859      10.54253312       -2
O        1.90384734       2.95357618       9.99261216       -2
O       -1.64487330       2.84807412       3.54223292       -2
O        0.89853762       4.30992089       2.97446281       -2
O        1.29211847       1.64210570       3.30599233       -2
30
Lattice="5.13866533 0.0 0.0 -2.56943161 4.45032869 0.0 -0.00029906 0.00021722 13.81846289" Properties=species:S:1:pos:R:3:Qs:I:1 REF_dipole="1.3546683872131213 -43.038275071465556 -25.90062451582747" energy=-667054.841191449 free_energy=-667054.841191449 polarization="0.068601241 0.074298173 0.08803053" pbc="T T T"
Nb      -0.01395313       0.21124225      -0.04994121        5
Nb      -0.00469478      -0.19136689       6.96206715        5
Nb       2.61791907       1.43688019       4.85987890        5
Nb       2.60072611       1.47492274      11.68222210        5
Nb       0.01770040       2.93275835       9.32886517        5
Nb      -0.02835940       2.83259039       2.36151154        5
Li      -0.10557033      -0.34080177       3.54401625        1
Li      -0.13615148      -0.08460009       9.76331967        1
Li       2.46236214       1.42619081       9.15143205        1
Li       2.65675010       1.23553355       2.06819920        1
Li       0.15026728       3.18459379      13.40040760        1
Li       0.15956122       2.54822643       5.95387871        1
O       -0.65229559       1.88221457       0.96284853       -2
O        1.50584786       3.64062813       1.21799662       -2
O       -1.14524533       4.39279534       1.27465562       -2
O        0.98520627       3.99601297       8.03952488       -2
O        0.69640780       1.34438531       8.07630270       -2
O       -1.58264735       3.03612783       7.97464775       -2
O        1.91321906       3.17686251       5.50238471       -2
O        1.45151194       0.20773804       5.72156991       -2
O        4.12265037       1.26911514       5.82311902       -2
O        0.93937423       1.54126040      12.35909267       -2
O        3.04751572       3.23031470      12.63590528       -2
O        3.32738168       0.32351355      12.86599153       -2
O       -0.31077414       4.58296046      10.26699054       -2
O       -0.98483055       1.77314585      10.41701229       -2
O        1.73881813       2.77938163      10.22587347       -2
O       -1.51750034       2.79503469       3.42543292       -2
O        0.52260325       4.46651502       3.64616332       -2
O        1.03413929       1.65581668       3.26860596       -2
30
Lattice="5.13866533 0.0 0.0 -2.56943161 4.45032869 0.0 -0.00029906 0.00021722 13.81846289" Properties=species:S:1:pos:R:3:Qs:I:1 REF_dipole="-0.41159176799377084 -32.512492787884234 -18.37934711378616" energy=-667053.235817337 free_energy=-667053.235817337 polarization="0.109347255 -0.068950763 -0.231236977" pbc="T T T"
Nb       0.12426774       0.20011789       0.07327464        5
Nb       0.01173652      -0.10899569       7.06811426        5
Nb       2.36286095       1.38371376       4.82095262        5
Nb       2.68305021       1.42922829      11.64131670        5
Nb      -0.02995270       3.03162453       9.43909279        5
Nb      -0.02014377       3.02528499       2.37439172        5
Li      -0.07706831      -0.10921265       3.53952882        1
Li      -0.05690454      -0.07656930      10.73065562        1
Li       2.29759752       1.94365734       8.57706310        1
Li       2.83305607       1.63072839       1.98393831        1
Li      -0.00176380       3.14292108      13.20699333        1
Li      -0.24183452       3.21843996       5.93260579        1
O       -0.46828797       1.59369128       1.03909238       -2
O        1.89570330       3.27678704       0.94256517       -2
O       -0.78165825       4.46871639       0.93639496       -2
O        0.99910775       4.17931996       8.19293336       -2
O        0.68492466       1.05955567       8.07799607       -2
O       -1.43967954       2.91944425       7.65042087       -2
O        1.63778232       2.54124659       5.87175041       -2
O        1.38098320      -0.02757886       5.61356484       -2
O        3.99590713       1.07207600       5.66378376       -2
O        0.94571906       1.33864373      12.35443592       -2
O        3.48360008       2.97986041      12.75719270       -2
O        3.68922248       0.03449325      12.43883968       -2
O       -0.87120562       4.45948225      10.38711377       -2
O       -1.23853399       1.62850585       9.88307247       -2
O        1.57563575       2.78171530      10.25233234       -2
O       -1.59582915       2.94481830       3.47937196       -2
O        0.82496082       4.64037090       2.94966027       -2
O        0.89535198       1.89740196       3.59189091       -2
30
Lattice="5.13866533 0.0 0.0 -2.56943161 4.45032869 0.0 -0.00029906 0.00021722 13.81846289" Properties=species:S:1:pos:R:3:Qs:I:1 REF_dipole="1.681653247573101 -32.87949616427495 -16.37114858639289" energy=-667053.669146352 free_energy=-667053.669146352 polarization="-0.045055653 -0.087557846 -0.129421247" pbc="T T T"
Nb       0.01516818      -0.00171338       0.20906522        5
Nb       0.19505684       0.15645124       7.09229766        5
Nb       2.70363520       1.50930868       4.86152993        5
Nb       2.37772024       1.59854383      11.55389662        5
Nb      -0.06265352       3.05515175       9.25398660        5
Nb      -0.01423397       2.69225260       2.55993713        5
Li       0.07832722      -0.19777999       4.09363558        1
Li      -0.29698325      -0.14262226      10.74743054        1
Li       2.89408608       1.54634579       8.65262961        1
Li       2.25702550       1.71125329       2.07903675        1
Li       0.43237589       3.03126998      13.35225248        1
Li      -0.02059738       3.13402561       6.01018317        1
O       -0.72092458       1.44721502       1.11190717       -2
O        1.55149468       3.26469534       1.30802025       -2