30
Lattice="5.138665333563419 0.0 0.0 -2.5694316069565684 4.450328688724344 0.0 -0.0002990603171383882 0.0002172196633777653 13.818462892933665" Properties=species:S:1:pos:R:3:Qs:I:1:REF_forces:R:3 REF_potential=-667055.1862638242 pbc="T T T"
Nb       0.03796370       0.02666810       0.18512260        5      -0.18728020      -2.29988280      -3.33368232
Nb       0.06406166      -0.04192295       6.80177937        5      -2.85520513       0.70635408       4.19075962
Nb       2.63280483       1.42794768       4.68153559        5       0.58694176      -1.01957103      -2.12193674
Nb       2.45725558       1.54828787      11.64221630        5       2.82174479       1.73408580      -2.36560020
Nb      -0.02919243       3.02666614       9.16344437        5      -0.93158788      -1.97149634       1.67081608
Nb      -0.00086850       2.92880010       2.37637613        5       1.87758422      -0.07518832      -0.04285155
Li       0.41022083      -0.05597848       2.90629949        1      -1.78586268      -0.02170783       1.46146657
Li       0.04779423      -0.18157076       9.94249907        1      -0.18964304       0.16844018       0.34255016
Li       2.68207652       1.53883677       7.76657527        1      -0.11020212      -0.27955247       0.22006536
Li       2.55346000       1.14657886       0.67657953        1       0.45499376       0.65750826       0.07775736
Li       0.06908991       3.39351295      11.97438084        1      -0.13538967      -1.17984847       0.80697164
Li       0.16872763       2.73678815       5.41501755        1      -0.44836237       0.39406324      -0.09961020
O       -0.64310378       1.49175587       1.35042851       -2       0.07392488       0.05732223      -0.04594047
O        1.63000342       3.30192296       1.44437863       -2      -0.25668919      -0.92047557      -0.25168016
O       -1.10103787       4.29000795       1.58887576       -2       1.85660915       0.22811652      -1.03294591
O        0.82787130       4.21034032       8.12366406       -2       1.06727528       1.60246587      -0.59406886
O        0.49634018       1.62744220       7.97607653       -2       1.07851101      -1.23256638       0.80868399
O       -1.77617275       3.15205468       8.31766043       -2      -0.75164664       1.97889597      -0.94299843
O        2.00540174       3.01770188       5.73305306       -2      -1.40838871      -1.35683294       0.27414287
O        1.44896660      -0.02207209       5.77295302       -2       4.10629887       1.19121789      -1.84635559
O        4.03090691       1.40551057       6.17840861       -2      -0.65428924      -0.65296769      -1.64715679
O        1.14296987       1.15984004      12.93399080       -2      -0.16866644       1.17759104       1.80921858
O        3.42170222       3.05427332      12.78703829       -2      -1.76686222      -0.03880463       1.31551017
O        3.74236774       0.38123885      12.87392919       -2      -1.36241224      -0.47252612      -0.09326060
O       -0.64578671       4.40997772      10.69414239       -2      -0.24592244       0.67742403      -1.15648229
O       -1.22814095       1.82461892      10.40886296       -2       0.84822756      -0.67509461      -0.01003347
O        1.38575109       2.79666455      10.63778502       -2      -0.21382427       0.16154448      -0.40861209
O       -1.54679559       2.57084347       3.51091621       -2      -0.51730085       0.28702667       1.59696371
O        0.70286376       4.31014315       3.72216905       -2      -0.58424210       0.55947723       0.72830616
O        1.03305447       1.57316449       3.61323792       -2      -0.19832926       0.61498735       0.69000186
30
Lattice="5.138665333563419 0.0 0.0 -2.5694316069565684 4.450328688724344 0.0 -0.0002990603171383882 0.0002172196633777653 13.818462892933665" Properties=species:S:1:pos:R:3:Qs:I:1:REF_forces:R:3 REF_potential=-667055.4284451366 pbc="T T T"
Nb      -0.02271128      -0.01148584       0.12331893        5      -1.54792249       1.15600920      -1.54181355
Nb       0.09361833       0.08008145       6.87686962        5       0.67264177      -0.91768849       0.66528328
Nb       2.48982114       1.31652412       4.54707695        5       1.64642146       0.22637125       2.15675462
Nb       2.57051538       1.53060806      11.62343051        5       0.08896789       2.18145778      -2.45749658
Nb      -0.05852435       3.14958872       9.17466293        5       1.94614012      -1.30181647      -0.40405043
Nb      -0.08121812       2.96830318       2.36227356        5      -0.47144882      -0.83658561       0.49898483
Li      -0.04374862      -0.26629626       3.12874972        1      -0.18211022       0.44883391       0.14283250
Li       0.08015289       0.36168257      10.49379590        1      -0.20487991      -0.67414330      -0.25764204
Li       2.66448667       1.63025213       7.44552345        1      -0.58642239      -0.52754413       0.28906966
Li       2.58242187       1.50897000       0.92957916        1      -0.16150231       0.01035075      -0.30475391
Li      -0.16088416       2.98774516      12.10688681        1       0.56415150       0.31453850       0.01856542
Li       0.15352754       2.74661497       5.24878182        1      -0.19732190       0.35957343       0.41065868
O       -0.62945630       1.32054587       1.43136616       -2      -0.73455394       2.34256311       0.84170210
O        1.55194449       3.26106519       1.46077254       -2      -0.47036947      -1.16127997       0.24677399
O       -1.20149158       4.28023934       1.48901473       -2       2.47202331      -0.74120282       0.89670315
O        0.87994763       4.15816345       7.91707327       -2       2.16176313       1.41885824       0.24149602
O        0.64618888       1.56750230       8.22521317       -2      -0.35369435      -1.80611783      -0.40968732
O       -1.55682350       3.00032370       8.17181919       -2      -1.30329229       1.44791171      -0.12986386
O        2.32284456       2.74154016       5.94123138       -2      -0.37573693       1.63828134      -0.20079186
O        1.99963370       0.35442491       6.16994177       -2      -2.94136794      -1.19999050      -0.66706248
O        4.36616185       0.97247956       5.55530243       -2       1.13735842       0.70821556       1.48424654
O        1.02655618       1.11156320      12.88657653       -2      -0.09580034       1.25024528      -0.32984068
O        3.08821474       2.92533929      13.06813723       -2       0.70997419      -1.67476016      -0.74908582
O        3.48011281       0.28667541      12.79698682       -2       1.07605303      -0.57950098       1.33063854
O       -0.51737392       4.49642940      10.58624316       -2      -1.00117222       0.94575980      -0.18805924
O       -0.86770776       1.96080268      10.62407933       -2      -1.61226178      -1.23632533       1.42227267
O        1.57413818       3.02090340      10.62122177       -2       1.06235933      -1.77467323       0.91879921
O       -1.54422379       2.66751356       3.67771287       -2      -0.04642436       0.04227100      -0.68277706
O        0.66801215       4.09082565       3.92985523       -2      -0.50122991      -0.46187301      -2.23271529
O        0.91502679       1.48915232       3.65286800       -2      -0.75034052       0.40227226      -1.00914264
30
Lattice="5.138665333563419 0.0 0.0 -2.5694316069565684 4.450328688724344 0.0 -0.0002990603171383882 0.0002172196633777653 13.818462892933665" Properties=species:S:1:pos:R:3:Qs:I:1:REF_forces:R:3 REF_potential=-667055.1508890259 pbc="T T T"
Nb       0.07114259       0.05276267       0.07546967        5      -1.23334285      -0.35316830       2.32029222
Nb      -0.00546190       0.05976316       6.83781634        5      -1.14550368      -3.04808416       0.97653591
Nb       2.50644789       1.48702502       4.61082164        5      -1.52181550      -1.36449483      -1.85520019
Nb       2.59050769       1.42655594      11.49065994        5      -1.64486337       0.47545974      -0.66336009
Nb       0.02658570       2.75901889       9.10692825        5       1.95053670       2.35279611       2.55773361
Nb      -0.03479409       3.03868375       2.25716309        5       0.62012442      -2.31891411       1.62879911
Li       0.25373254      -0.01277672       3.37340422        1      -1.05171497       0.15184679      -0.72322052
Li      -0.01059206       0.07492356       9.66600398        1       0.20353008      -0.86671894       0.87468422
Li       2.49539867       1.44034101       7.49976412        1       0.48614062       0.12306586       0.21254026
Li       2.78631914       1.43799146       0.48338275        1      -1.26163527       0.43141263       0.47884949
Li       0.03748056       3.10646077      11.96236851        1       0.06255443      -0.15748985       0.58168128
Li      -0.39100852       3.00258858       5.19809194        1       1.51511521      -0.08978447       0.75408404
O       -0.91142309       1.58080581       1.42740792       -2       2.11805951       0.65072569       0.34138647
O        1.63305148       3.14925533       1.58933615       -2       0.46896565       0.61872574      -1.60882678
O       -1.08471275       4.47257939       1.79260370       -2      -0.62533861       0.18112395      -1.71993444
O        1.09052841       4.19684101       8.55176843       -2       0.65508628       0.37978590      -1.88890736
O        0.88295335       1.31831804       8.38878185       -2      -0.78887621      -1.38417920      -1.17039196
O       -1.40996624       3.11317603       8.15964811       -2      -2.75426875       0.41965600      -1.43360609
O        1.71268736       2.89743048       6.12300375       -2       1.59835211       1.73708370       0.53013580
O        1.65064662       0.34381914       6.00594975       -2      -0.98624953      -1.51927011       0.56678431
O        4.01127973       1.29808759       6.18407080       -2       0.07187725       1.00610359      -0.50891288
O        1.09267158       1.32556247      13.14666713       -2       0.71195909       0.99058956      -1.37876446
O        3.24380343       3.03021692      13.00691142       -2       0.27318796      -0.83112973      -0.94871657
O        3.51998102       0.27780746      13.04305423       -2      -0.20577106      -0.16574823      -1.20893794
O       -0.72313125       4.44380273      10.54920075       -2       0.46592352       0.01981601       1.20432024
O       -0.99157227       1.48575500      10.50570239       -2       0.78080295       1.30952464       0.18931805
O        1.52319429       2.84012059      10.65657081       -2       0.79266602      -1.60971638       1.42940491
O       -1.69617174       2.87242686       3.99328770       -2       1.71402605       1.64844749      -1.20264902
O        0.98231696       4.57323948       3.79174527       -2      -2.62390353       0.13390306       0.60097484
O        0.77486362       1.66964408       3.70651599       -2       1.35438011       1.07862928       1.06389171
30
Lattice="5.138665333563419 0.0 0.0 -2.5694316069565684 4.450328688724344 0.0 -0.0002990603171383882 0.0002172196633777653 13.818462892933665" Properties=species:S:1:pos:R:3:Qs:I:1:REF_forces:R:3 REF_potential=-667053.9889629541 pbc="T T T"
Nb      -0.06183383      -0.07202949       0.03921669        5      -1.29687481      -1.61822674      -2.39177917
Nb       0.05097802       0.10903802       7.08938719        5      -1.12608670       2.27297363       3.26953329
Nb       2.52258251       1.53719632       4.60955162        5       3.71485353      -0.96175206       0.66672824
Nb       2.50831589       1.49833883      11.56379223        5       0.63577729      -2.72740586      -0.51315726
Nb       0.04264285       2.91051174       9.28028670        5      -0.83809227       1.50285619      -0.89648717
Nb      -0.09086449       2.88186209       2.31593880        5      -0.82840436       0.80020450      -1.79482554
Li       0.26687360       0.04558348       4.05134903        1      -1.24612123      -0.13014771       0.35366246
Li      -0.23241516       0.08505571      10.84337037        1       0.52715332      -0.34852026      -0.02694208
Li       2.65730573       1.83631374       7.11441727        1       0.13068456      -0.55701926       1.76160174
Li       2.56495902       1.46406932       1.76464198        1      -0.18438411      -0.34610342      -0.49534980
Li      -0.33685781       2.64649993      12.98198718        1       1.39594971       0.53514431      -0.11593671
Li       0.33354887       3.14686874       4.94601308        1      -0.70818985      -0.09773175       1.24338044
O       -0.45554327       1.47162597       1.01000880       -2      -1.28703777       2.08139044       2.32732161
O        1.42799531       3.31655471       1.51287004       -2       2.90071366      -0.16006815      -1.67457504
O       -1.03913472       4.14879172       1.20251819       -2       0.50250518      -0.12162810       0.68366666
O        0.98471413       4.28855272       8.19594967       -2       1.69101981       0.78443335      -1.28249206
O        0.83835959       1.50175732       8.32644477       -2       0.06744004      -0.71972896      -1.44912527
O       -1.55665945       3.16871847       8.16673908       -2      -0.03287053       0.59337980      -0.90327489
O        2.17312975       3.25355087       5.89212373       -2      -0.78573433      -3.12414768      -2.95186833
O        1.76449910       0.50968709       5.96763732       -2       0.80466793      -0.54854490      -0.59289643
O        4.52196220       1.42103133       5.65187727       -2      -1.69120493      -0.31768913       0.91842383
O        0.76786789       1.00062120      12.55134276       -2       0.79964399       0.63736109      -0.10265284
O        3.04186411       2.65009305      13.10084038       -2      -0.40254840      -0.42692760      -0.56912401
O        3.51522901      -0.08719518      12.64003286       -2       0.60045548       0.41443563       1.22945020
O       -0.52342083       4.40922100      10.51692094       -2      -0.00875152       0.18708428       0.08614790
O       -0.91643440       1.71712715      10.34769007       -2      -1.52427348      -0.74332655       2.34753049
O        1.70008765       2.67836699      10.48178358       -2      -0.40937416       1.56176017      -0.14339146
O       -1.57376775       2.83781337       3.58746699       -2       0.04677043       1.00547624      -0.01846669
O        0.66821853       4.66282389       3.37585431       -2      -0.83960923      -0.62817711       1.58512635
O        0.98678851       1.62521436       3.55218145       -2      -0.60807623       1.20064870      -0.55023154
30
Lattice="5.138665333563419 0.0 0.0 -2.5694316069565684 4.450328688724344 0.0 -0.0002990603171383882 0.0002172196633777653 13.818462892933665" Properties=species:S:1:pos:R:3:Qs:I:1:REF_forces:R:3 REF_potential=-667053.1807848667 pbc="T T T"
Nb       0.00862696      -0.09835870       0.08830856        5       0.66062444       2.16958442      -0.57932615
Nb      -0.20171971       0.00587450       6.86369310        5       2.08334447      -0.26690984       0.12141573
Nb       2.56964753       1.64733926       4.59958721        5      -1.81528124      -2.33059720       0.88656786
Nb       2.60222897       1.41427903      11.65618658        5      -1.32780519      -0.77514652      -2.02822516
Nb       0.02040925       2.75404462       9.13518631        5       1.39968295       0.08267589      -1.44098516
Nb       0.00077211       3.04196465       2.28235722        5       1.87212833       2.30625914       4.06170566
Li       0.07994598       0.13976311       3.53062806        1      -0.28652324      -0.22179674      -0.33657080
Li      -0.21029873       0.01423836      10.33350812        1       0.87040590      -0.07597919      -0.62616651
Li       2.58481904       1.52725837       7.80261224        1       0.50726069      -0.28564855      -0.19822693
Li       2.70992712       1.28060358       1.01609434        1       0.00746237       0.35785182      -0.14954617
Li       0.66395336       3.14656711      11.72794301        1      -1.29527559      -0.34790936       1.16264779
Li      -0.23562727       3.34881335       5.26598008        1       0.59313297      -0.71998093       0.12738017
O       -0.44114594       1.69347293       1.32864757       -2      -1.71255023      -3.73928416      -2.78645897
O        1.75649794       3.50390461       1.67808446       -2       0.05991648      -0.39484897      -1.34041902
O       -1.05760300       4.34985261       1.49904793       -2      -0.41684219       1.26081766      -1.45540390
O        1.51076391       4.24786428       8.57658684       -2      -1.66729882      -0.80129464      -0.70915144
O        0.90699917       1.29646302       8.32861440       -2      -1.24439345       0.39976286       0.29685034
O       -1.07263164       2.86627252       7.67455135       -2      -0.78988409       2.03999053       2.56424879
O        1.75415898       2.96305904       5.72654418       -2      -0.08950216       2.62365670       2.77440563
O        1.49752390       0.30616712       6.00632018       -2      -1.84874672       0.38473219      -0.36293952
O        3.77919848       1.30878755       6.22936837       -2       1.06294040      -1.22464738      -1.75744170
O        0.89161069       1.35854080      12.71681647       -2      -0.27297970      -0.72871754       1.25568060
O        3.07606483       3.00119684      12.77142756       -2       0.10490667       0.75904627       1.43051562
O        3.37817740       0.23991096      13.18365662       -2       1.14380160      -0.10507328      -0.22188622
O       -0.61072872       4.33413075      10.79563858       -2       1.32674589      -0.31564253      -1.01838833
O       -0.94890471       1.84592889      10.53041496       -2       0.67953233      -1.26115705       0.32904621
O        1.81562291       2.58929059      10.35483396       -2      -0.97852080       0.35069850       1.74162427
O       -1.61333963       2.84927006       3.64955535       -2       1.47378215       0.97311634      -0.77730625
O        0.47558374       4.44491929       3.80472069       -2       0.52312697       0.62655732      -0.15472694
O        0.91729166       1.85362842       3.68850279       -2      -0.62320460      -0.74011781      -0.80892054
30
Lattice="5.138665333563419 0.0 0.0 -2.5694316069565684 4.450328688724344 0.0 -0.0002990603171383882 0.0002172196633777653 13.818462892933665" Properties=species:S:1:pos:R:3:Qs:I:1:REF_forces:R:3 REF_potential=-667053.4637832543 pbc="T T T"
Nb      -0.09263935       0.10454055      -0.10281384        5       0.15684965      -2.56790490       0.28602651
Nb       0.05025914       0.00424005       7.07065431        5       1.33699431       0.10354553       0.34785846
Nb       2.64476423       1.51257370       4.66948623        5       1.83886340       0.05180105       0.00352858
Nb       2.49138751       1.43107512      11.44890786        5      -1.81437621       1.56204813      -2.72217110
Nb      -0.11171249       2.94839554       9.16847156        5      -0.83573714      -2.35064666       0.56131300
Nb       0.12096356       2.89623983       2.26444457        5      -0.56178608       2.32286846       3.30365697
Li       0.22505590      -0.07209457       4.22494562        1      -0.50689714       0.49366881      -0.31116315
Li      -0.33090933      -0.11282376      10.17544289        1       0.63278967       0.05385639      -0.14948755
Li       2.61620983       1.00008673       8.14694786        1      -0.63145270       1.95888250      -0.63920715
Li       2.17655352       1.52847018       0.42733865        1       1.43228454       0.11933673       1.25682217
Li      -0.01502715       3.03678930      13.53476570        1      -0.47155372       0.24007060      -1.02176161
Li       0.15132669       2.92902765       5.54964024        1      -0.41322464      -0.01304732       0.02252801
O       -0.43271879       1.51115021       1.27417407       -2      -0.96215830      -0.96309418      -0.48624089
O        1.70648011       3.22932514       1.23933834       -2      -0.65967827      -0.12602160      -0.18136409
O       -0.92799163       4.05423304       1.25934653       -2      -0.25850902       1.18416278      -0.98496398
O        0.97620496       3.97159673       8.11064630       -2      -0.36556719       0.14941401       0.97647420
O        0.63310233       1.23130013       8.45863324       -2      -0.06167768       1.29727076       1.17655746
O       -1.78635941       3.05423098       8.27352705       -2       1.30586339      -1.24709311       1.38660118
O        2.28847450       3.01380184       5.95578375       -2      -2.04408887      -1.58209759      -2.08303080
O        1.64883683       0.18805741       6.14057244       -2       2.31826619       1.28235322      -2.34793158
O        4.12840252       1.22609832       6.27588305       -2      -1.33388328       1.69624430      -2.49787318
O        0.94966673       1.45493043      13.04173129       -2       0.21900401      -0.03224832      -1.39366657
O        3.05009811       3.07705969      12.70787338       -2       0.17536468       0.54535159       0.41175552
O        3.41720951       0.45621797      12.68961677       -2       2.11443426      -2.86394688       4.11427444
O       -0.62076192       4.27788450      10.49279046       -2      -0.24405222       1.73770077       0.11203634
O       -1.16916944       1.83456216      10.45802352       -2      -0.71217506      -2.00599026       0.25186786
O        1.21308056       2.54384485      10.69948708       -2       0.49349346       1.24936597      -0.84677746
O       -1.31683105       2.93395958       3.88419253       -2       0.14717253      -0.34107023      -0.37205460
O        0.98450246       4.90288513       3.43388918       -2      -0.95015638      -1.58144967       1.22687395
O        1.00831015       1.82344415       3.73067822       -2       0.65559536      -0.37333038       0.59952474
30
Lattice="5.138665333563419 0.0 0.0 -2.5694316069565684 4.450328688724344 0.0 -0.0002990603171383882 0.0002172196633777653 13.818462892933665" Properties=species:S:1:pos:R:3:Qs:I:1:REF_forces:R:3 REF_potential=-667054.3209418317 pbc="T T T"
Nb      -0.01609635      -0.06329383       0.11910350        5      -0.60534057      -3.90593279      -1.06120748
Nb       0.00693021       0.09709238       7.14780835        5      -0.12819110       0.36524734       0.07263264
Nb       2.58584564       1.57484728       4.89217988        5       2.12599394      -1.26394926      -0.50796518
Nb       2.48818069       1.37872362      11.61840332        5       0.06882638       2.35436962      -0.21356407
Nb       0.02662820       2.99216379       9.24747772        5       0.10750400      -1.95016646      -0.67982029
Nb       0.04077289       2.92174088       2.48384673        5      -2.87244180       2.87948663      -2.39216484
Li      -0.05824177      -0.01098307       4.08939158        1       0.09944256      -0.03351845      -0.18681123
Li      -0.33952592      -0.00785537      10.88575747        1       0.37139279      -0.24189197       0.10470767
Li       2.68003919       1.69388569       8.58441866        1      -0.39855496      -0.38235906       0.09524035
Li       2.66453429       1.11973370       1.59317268        1      -0.25039101       0.90139284       0.29340249
Li      -0.03006245       2.85426549      12.81926518        1      -0.33450826       0.22586526       0.47605264
Li       0.06790931       3.02042714       6.34859200        1      -0.16524327       0.05158919      -0.08445509
O       -0.66481592       1.25102257       1.05314204       -2      -1.21558167       3.79644493       2.29727056
O        1.53510607       2.97778075       1.06745099       -2      -0.50912629       0.22022631      -0.01592233
O       -0.98822787       4.03454765       0.85161019       -2       2.18849232       0.04746154       1.68966741
O        0.74934669       4.19805812       7.68233026       -2       2.83418893       1.67272899       0.63915572
O        0.72632748       1.82938152       7.86346762       -2       0.42479718      -4.20499839      -1.18690358
O       -1.47464757       3.13867708       7.86240927       -2      -1.60596257       0.89151466      -0.08987909
O        2.15351844       3.23581814       5.50645938       -2      -1.09470896       0.26782361       1.37565342
O        1.66985575       0.17200482       5.73135969       -2      -0.74475094       0.85802861      -0.24541079
O        4.28429813       1.35077247       5.94493562       -2      -1.52419120       0.69392023      -2.65557952
O        0.80091501       1.11941619      12.51848085       -2       1.32367599       1.67383456      -1.50927880
O        3.00885933       3.13798915      12.42492232       -2       0.36597651      -3.71236985      -1.69627515
O        3.50997428       0.06833689      12.43158995       -2      -0.79822989       0.87805750       0.21667048
O       -0.25462367       4.53655162      10.11157120       -2      -1.99968077       2.79346779       1.61795420
O       -1.11493406       1.80809272      10.16877525       -2       1.11746322      -0.48711147       0.92448649
O        1.74909475       2.80684063       9.96154945       -2      -0.05475370      -0.47603156       1.63909895
O       -1.75144959       2.48054996       3.32294717       -2       2.33143538       1.55938961      -0.92700103
O        0.54588334       4.52853458       3.45930556       -2      -0.67532601      -1.47002834      -1.02939265
O        1.02623867       1.92957064       3.43575188       -2       1.61779479      -4.00248801       3.03964065
30
Lattice="5.138665333563419 0.0 0.0 -2.5694316069565684 4.450328688724344 0.0 -0.0002990603171383882 0.0002172196633777653 13.818462892933665" Properties=species:S:1:pos:R:3:Qs:I:1:REF_forces:R:3 REF_potential=-667053.1236409615 pbc="T T T"
Nb      -0.02621084      -0.11171196       0.05062310        5      -2.39554327       0.14642742       0.50724887
Nb       0.00730016       0.14460879       6.96815269        5       0.93069827      -0.14635440      -4.44605476
Nb       2.53718780       1.39633992       4.62823686        5      -1.02070232       2.19083202       2.69783818
Nb       2.58050624       1.57114303      11.56934860        5       1.74285326       1.49989942       5.22916141
Nb       0.05145598       3.24104641       9.33913121        5      -0.58595960      -4.46892215      -2.58280187
Nb      -0.02594720       2.89574770       2.45056678        5       0.36747546      -2.56292724      -1.78936966
Li      -0.17565932      -0.22781132       3.41503988        1       0.44850430       0.36985013       0.19784795
Li       0.43950602       0.49197341       9.87502898        1      -0.98395611      -0.06593029      -0.11956968
Li       2.99700046       1.43446185       8.18012727        1      -1.35423099       2.18590065       0.07022043
Li       2.26643427       1.29034044       1.33419335        1       0.51220287       0.01110562      -0.22153089
Li       0.05368238       2.95160235      13.34611402        1      -0.15469095      -0.20968839       0.13936820
Li       0.10477762       3.31329498       6.47501244        1      -0.30193187      -1.08700079      -0.19039586
O       -0.45422720       1.44566453       0.96455777       -2      -0.27658027      -0.23835876       2.13388208
O        1.54408620       3.00193240       1.15718357       -2      -0.80151062       0.17577245       1.20277757
O       -1.10817647       3.70077441       1.21755740       -2       0.32072766       2.99949030      -0.11958459
O        0.98855067       4.30212611       8.08281158       -2      -0.61172205      -0.84126502       0.25861443
O        0.68202477       1.49479864       8.11159882       -2      -0.78935444       1.45980049       0.88143593
O       -1.61859965       3.45041009       8.10710081       -2       1.74221562      -2.88342556       2.46481394
O        1.75840827       2.90680750       5.91694214       -2       2.05633246      -0.37031602      -0.91770392
O        1.53251839       0.04137361       5.78993961       -2       0.61095072       0.94264876      -0.64570175
O        4.28493314       1.33360597       5.60366923       -2      -1.27631113      -0.48222226       1.04956038
O        1.15914153       0.90258054      12.84117312       -2       2.10518857       2.19842192      -2.22978424
O        3.22554152       2.86435161      12.85456130       -2       0.48123290      -2.78010320      -2.80347967
O        3.66854223       0.10107073      12.70363996       -2      -1.71793927       0.19896123      -1.19768679
O       -0.38791018       4.59586180      10.34049326       -2      -2.68945124       0.48727396       0.51808761
O       -1.03212841       1.56895753      10.50432653       -2       1.28954203       1.60188995      -1.77940406
O        1.41298255       2.72400323      10.42987129       -2       1.67159770      -0.58861812       0.98367843
O       -1.72699102       2.57998765       3.36823416       -2      -0.57149971      -0.28624659       0.68435572
O        0.45017900       4.36674923       3.43361930       -2       1.12735683       1.36841834       0.71444277
O        0.87394676       1.59950693       3.62587996       -2       0.12449282      -0.82530875      -0.69026926
30
Lattice="5.138665333563419 0.0 0.0 -2.5694316069565684 4.450328688724344 0.0 -0.0002990603171383882 0.0002172196633777653 13.818462892933665" Properties=species:S:1:pos:R:3:Qs:I:1:REF_forces:R:3 REF_potential=-667052.2719246605 pbc="T T T"
Nb       0.00016279       0.16517685      -0.04219881        5      -1.11734495      -2.39687510       3.73120061
Nb      -0.10459770       0.07559297       6.91544664        5       3.59640280       1.43382206      -2.02409597
Nb       2.62131639       1.55899313       4.69734741        5      -2.85800763      -0.91932886      -3.96135549